/*--------------------------------*- C++ -*----------------------------------*\
| =========                 |                                                 |
| \\      /  F ield         | OpenFOAM: The Open Source CFD Toolbox           |
|  \\    /   O peration     | Version:  v2012                                 |
|   \\  /    A nd           | Website:  www.openfoam.com                      |
|    \\/     M anipulation  |                                                 |
\*---------------------------------------------------------------------------*/
FoamFile
{
    version     2.0;
    format      ascii;
    class       volScalarField;
    location    "280";
    object      p;
}
// * * * * * * * * * * * * * * * * * * * * * * * * * * * * * * * * * * * * * //

dimensions      [0 2 -2 0 0 0 0];


internalField   nonuniform List<scalar> 
12225
(
-1.76151
-3.91874
-5.01137
-5.32515
-5.50198
-5.68077
-5.82886
-5.94051
-6.03217
-6.11513
-6.19249
-6.26531
-6.33528
-6.40439
-6.47513
-6.54694
-6.63444
-6.68763
-4.89175
-5.67941
-5.88436
-5.79641
-5.77141
-5.83571
-5.91883
-5.99315
-6.06265
-6.13191
-6.20053
-6.26758
-6.33361
-6.39982
-6.46789
-6.5391
-6.61824
-6.72127
-5.27176
-5.20572
-5.32521
-5.41231
-5.52071
-5.66323
-5.79806
-5.90853
-6.00255
-6.08821
-6.16797
-6.24271
-6.31396
-6.38351
-6.45336
-6.52474
-6.60244
-6.68538
-5.14446
-5.05702
-5.31628
-5.50844
-5.63097
-5.75225
-5.86587
-5.96027
-6.04143
-6.11664
-6.18819
-6.25653
-6.32264
-6.38779
-6.45332
-6.51996
-6.58889
-6.65483
-5.13604
-5.15058
-5.39762
-5.56267
-5.65565
-5.75413
-5.8564
-5.94686
-6.02693
-6.10201
-6.17389
-6.24272
-6.30913
-6.37412
-6.43857
-6.5027
-6.56611
-6.62509
-5.19709
-5.24215
-5.42868
-5.56872
-5.65893
-5.75507
-5.85564
-5.94608
-6.02638
-6.10123
-6.17251
-6.24051
-6.30579
-6.36915
-6.43118
-6.49177
-6.55011
-6.60339
-5.2597
-5.30195
-5.44601
-5.57639
-5.67051
-5.7643
-5.86034
-5.94801
-6.0266
-6.09986
-6.16957
-6.23606
-6.29976
-6.3612
-6.42072
-6.47799
-6.53209
-6.58074
-5.31523
-5.35242
-5.46996
-5.59084
-5.68441
-5.77357
-5.86409
-5.94856
-6.02534
-6.09706
-6.1653
-6.23037
-6.29253
-6.35212
-6.40925
-6.46353
-6.51409
-6.5592
-5.367
-5.40085
-5.49845
-5.60732
-5.69745
-5.78209
-5.86759
-5.94886
-6.02372
-6.09381
-6.16044
-6.22393
-6.2844
-6.34204
-6.39682
-6.44834
-6.49591
-6.53825
-5.4161
-5.44671
-5.52813
-5.62476
-5.71037
-5.79087
-5.87167
-5.9495
-6.02209
-6.09028
-6.1551
-6.21682
-6.27546
-6.33108
-6.38358
-6.43262
-6.47765
-6.51779
-5.46233
-5.48945
-5.5579
-5.64328
-5.72366
-5.80002
-5.87627
-5.95046
-6.02049
-6.08658
-6.14942
-6.20922
-6.26594
-6.31953
-6.36987
-6.41666
-6.45955
-6.49788
-5.50187
-5.5259
-5.58486
-5.66098
-5.73612
-5.80857
-5.8808
-5.95159
-6.0191
-6.08311
-6.14403
-6.20198
-6.25687
-6.30862
-6.35709
-6.40203
-6.44321
-6.48017
-5.53822
-5.5596
-5.61075
-5.67864
-5.74848
-5.81702
-5.88542
-5.95287
-6.01778
-6.07963
-6.13858
-6.19465
-6.24774
-6.2977
-6.34441
-6.38768
-6.42737
-6.46314
-5.576
-5.59477
-5.63865
-5.6984
-5.76234
-5.82642
-5.89067
-5.9544
-6.01628
-6.07561
-6.13226
-6.18618
-6.23722
-6.28523
-6.33008
-6.37164
-6.40984
-6.44448
-5.61371
-5.62994
-5.66734
-5.71943
-5.77717
-5.83637
-5.89621
-5.95595
-6.01445
-6.07091
-6.12498
-6.17651
-6.22533
-6.27126
-6.3142
-6.35407
-6.39083
-6.4244
-5.64905
-5.66295
-5.69483
-5.7401
-5.79177
-5.84594
-5.90131
-5.95698
-6.01192
-6.06529
-6.11661
-6.16562
-6.21213
-6.25597
-6.29704
-6.33527
-6.3707
-6.40326
-5.67863
-5.6906
-5.71809
-5.75773
-5.80401
-5.85349
-5.90464
-5.95646
-6.00794
-6.05826
-6.10686
-6.15342
-6.1977
-6.23956
-6.27889
-6.31565
-6.34988
-6.38157
-5.69746
-5.70806
-5.73248
-5.76813
-5.8104
-5.85621
-5.904
-5.95269
-6.0013
-6.04904
-6.09532
-6.13978
-6.18218
-6.22237
-6.26026
-6.29582
-6.32907
-6.36006
-5.69782
-5.70779
-5.73089
-5.76485
-5.8054
-5.84952
-5.89562
-5.94267
-5.98975
-6.03604
-6.08097
-6.12417
-6.16543
-6.20462
-6.24165
-6.27651
-6.30924
-6.33991
-5.67362
-5.68411
-5.70842
-5.74418
-5.78659
-5.83217
-5.87931
-5.92717
-5.97491
-6.02168
-6.06692
-6.1103
-6.15166
-6.19087
-6.22789
-6.26273
-6.29544
-6.32611
-5.63937
-5.65076
-5.67755
-5.71719
-5.76347
-5.81205
-5.86162
-5.91167
-5.96126
-6.00946
-6.05578
-6.10002
-6.14206
-6.18184
-6.21931
-6.25455
-6.28762
-6.31864
-5.59707
-5.60918
-5.63976
-5.68604
-5.738
-5.79016
-5.84277
-5.89599
-5.94838
-5.99872
-6.04666
-6.09216
-6.1352
-6.17571
-6.21373
-6.24938
-6.28274
-6.31397
-5.55012
-5.56154
-5.59664
-5.65298
-5.71263
-5.76883
-5.82475
-5.88133
-5.93657
-5.98916
-6.03899
-6.08613
-6.1305
-6.17209
-6.21097
-6.24733
-6.28132
-6.31318
-5.50107
-5.51015
-5.55158
-5.61932
-5.68576
-5.74695
-5.80851
-5.86971
-5.92772
-5.98205
-6.03326
-6.0815
-6.12667
-6.16878
-6.20804
-6.24466
-6.2788
-6.31061
-5.44992
-5.45123
-5.51423
-5.59612
-5.65993
-5.72083
-5.78862
-5.85653
-5.91919
-5.97691
-6.03097
-6.08151
-6.12837
-6.17166
-6.21173
-6.24891
-6.28351
-6.31604
-5.40365
-5.3552
-5.47114
-5.59287
-5.65568
-5.70859
-5.7735
-5.8405
-5.90251
-5.96028
-6.01508
-6.06668
-6.11463
-6.15901
-6.20012
-6.23832
-6.27379
-6.30669
-5.42074
-5.22275
-5.35611
-5.53441
-5.63994
-5.7208
-5.80055
-5.87314
-5.93647
-5.99392
-6.04744
-6.09703
-6.14253
-6.18433
-6.22287
-6.25858
-6.29196
-6.32407
-5.56163
-5.31419
-5.29083
-5.34618
-5.42928
-5.53798
-5.64945
-5.74735
-5.83231
-5.90889
-5.97872
-6.04168
-6.09802
-6.14858
-6.19418
-6.23544
-6.2732
-6.30876
-5.28961
-5.92035
-6.03912
-5.89928
-5.8117
-5.81914
-5.86143
-5.90644
-5.95213
-6.00043
-6.04953
-6.09699
-6.14148
-6.18293
-6.22138
-6.25673
-6.28931
-6.3205
-2.23516
-4.00228
-5.01563
-5.29722
-5.42377
-5.56657
-5.69657
-5.79734
-5.87967
-5.95294
-6.01924
-6.07844
-6.13111
-6.17817
-6.22032
-6.25777
-6.29064
-6.31739
-7.10211
-7.10186
-7.10182
-7.10224
-7.10308
-7.10426
-7.10567
-7.10723
-7.10886
-7.11055
-7.11231
-7.11416
-7.11611
-7.11819
-7.12042
-7.12285
-7.12549
-7.12838
-7.13155
-7.13506
-7.13893
-7.1432
-7.14792
-7.15313
-7.15888
-7.16524
-7.17227
-7.18006
-7.18867
-7.1982
-7.20873
-7.22032
-7.23304
-7.24693
-7.26203
-7.27836
-7.29593
-7.31471
-7.33469
-7.35581
-7.37804
-7.4013
-7.42552
-7.45064
-7.47662
-7.50339
-7.53089
-7.55894
-7.58742
-7.61626
-7.6454
-7.67477
-7.70431
-7.73396
-7.76364
-7.79328
-7.82281
-7.85215
-7.88121
-7.9099
-7.93813
-7.9658
-7.9928
-8.01902
-8.04433
-8.06861
-8.09172
-8.11353
-8.13387
-8.15261
-8.16957
-8.1846
-8.1975
-8.2081
-8.21623
-8.22167
-8.22425
-8.22376
-8.22
-8.21276
-8.20184
-8.18703
-8.16811
-8.14488
-8.11713
-8.08467
-8.04727
-8.00474
-7.95689
-7.90352
-7.84445
-7.77951
-7.70852
-7.63133
-7.54778
-7.45773
-7.36104
-7.25758
-7.14733
-7.0304
-6.90682
-6.77622
-6.63812
-6.49255
-6.33968
-6.17956
-6.01222
-5.83768
-5.65599
-5.4672
-5.27138
-5.06861
-4.85901
-4.64269
-4.41979
-4.19045
-3.95486
-3.71319
-3.46565
-3.21245
-2.95382
-2.69001
-2.42126
-2.14786
-1.87006
-1.58818
-1.30251
-1.01335
-0.721045
-0.42591
-0.12828
0.171518
0.473161
0.776304
1.08056
1.38557
1.69099
1.99651
2.30175
2.60638
2.91006
3.21244
3.51322
3.81206
4.10865
4.40271
4.69394
4.98207
5.26683
5.54797
5.82527
6.09849
6.36743
6.6319
6.89172
7.14673
7.39678
7.64176
7.88153
8.116
8.34508
8.56871
8.78682
8.99939
9.20641
9.40801
9.60404
9.79419
9.97844
10.1569
10.3295
10.4964
10.6576
10.8132
10.9634
11.1085
11.2497
11.3879
11.5335
11.6828
-7.10257
-7.10235
-7.10235
-7.10283
-7.10372
-7.1048
-7.10595
-7.10714
-7.10836
-7.10958
-7.11083
-7.11214
-7.11357
-7.11515
-7.1169
-7.11885
-7.12102
-7.12343
-7.12612
-7.12909
-7.13237
-7.136
-7.14005
-7.14458
-7.14967
-7.15537
-7.16179
-7.16899
-7.17708
-7.18613
-7.19621
-7.20742
-7.2198
-7.23342
-7.24829
-7.26444
-7.28185
-7.30051
-7.32036
-7.34136
-7.36345
-7.38656
-7.41061
-7.43554
-7.46126
-7.48771
-7.51481
-7.54245
-7.57053
-7.599
-7.62777
-7.65678
-7.68598
-7.71529
-7.74465
-7.77398
-7.80322
-7.83229
-7.8611
-7.88956
-7.91759
-7.94509
-7.97194
-7.99805
-8.02328
-8.04751
-8.07061
-8.09244
-8.11285
-8.1317
-8.1488
-8.16401
-8.17715
-8.18803
-8.19647
-8.20229
-8.20529
-8.20527
-8.20202
-8.19535
-8.18505
-8.17091
-8.15271
-8.13027
-8.10335
-8.07177
-8.03531
-7.99378
-7.94698
-7.89472
-7.83682
-7.77311
-7.70342
-7.62759
-7.54547
-7.45692
-7.3618
-7.25998
-7.15134
-7.03572
-6.9129
-6.78288
-6.64583
-6.50175
-6.35051
-6.19207
-6.02644
-5.85362
-5.67367
-5.48662
-5.29254
-5.09152
-4.88365
-4.66906
-4.44786
-4.22023
-3.98631
-3.74629
-3.50037
-3.24876
-2.99168
-2.72939
-2.46212
-2.19013
-1.91372
-1.63316
-1.34875
-1.06081
-0.769651
-0.475601
-0.178993
0.119848
0.420607
0.722941
1.02647
1.33081
1.63566
1.94067
2.2455
2.54979
2.8532
3.15541
3.45609
3.75491
4.05157
4.34577
4.63722
4.92565
5.21077
5.49236
5.77016
6.04395
6.31353
6.57869
6.83926
7.09508
7.34599
7.59186
7.83258
8.06804
8.29816
8.52286
8.74212
8.9559
9.16413
9.36641
9.56266
9.7531
9.9377
10.1165
10.2896
10.457
10.6187
10.775
10.926
11.0722
11.215
11.3551
11.5039
11.6492
-7.10149
-7.10154
-7.10183
-7.10251
-7.10342
-7.10436
-7.10523
-7.10603
-7.10677
-7.10749
-7.10823
-7.10903
-7.10992
-7.11095
-7.11211
-7.11345
-7.11499
-7.11675
-7.11878
-7.12113
-7.12386
-7.12703
-7.13071
-7.13497
-7.1399
-7.14558
-7.15208
-7.15949
-7.16786
-7.17725
-7.18773
-7.19934
-7.2121
-7.22605
-7.24119
-7.25751
-7.27497
-7.29355
-7.31322
-7.33393
-7.35561
-7.37823
-7.40172
-7.42601
-7.45104
-7.47675
-7.50306
-7.5299
-7.55721
-7.5849
-7.61292
-7.64122
-7.66971
-7.69835
-7.72706
-7.75578
-7.78443
-7.81294
-7.84123
-7.86921
-7.89678
-7.92385
-7.95032
-7.97608
-8.001
-8.02497
-8.04785
-8.0695
-8.08978
-8.10853
-8.1256
-8.14082
-8.15403
-8.16503
-8.17365
-8.1797
-8.18299
-8.18333
-8.1805
-8.17431
-8.16455
-8.15102
-8.13351
-8.1118
-8.0857
-8.055
-8.0195
-7.97898
-7.93327
-7.88217
-7.8255
-7.76307
-7.69473
-7.6203
-7.53964
-7.45261
-7.35906
-7.25889
-7.15198
-7.03818
-6.9173
-6.78925
-6.65413
-6.51196
-6.36267
-6.20623
-6.04264
-5.87189
-5.69402
-5.50908
-5.31712
-5.11822
-4.91249
-4.70002
-4.48096
-4.25545
-4.02364
-3.78571
-3.54186
-3.2923
-3.03724
-2.77693
-2.5116
-2.24152
-1.96697
-1.68821
-1.40556
-1.11932
-0.829799
-0.537323
-0.242226
0.0551705
0.354555
0.655586
0.957886
1.2611
1.56489
1.86893
2.17286
2.47635
2.77905
3.08063
3.38076
3.67913
3.97542
4.26934
4.56059
4.84889
5.13398
5.4156
5.69351
5.96749
6.23732
6.5028
6.76375
7.02
7.2714
7.51781
7.75911
7.99518
8.22594
8.45128
8.67113
8.88543
9.09418
9.2973
9.49476
9.68653
9.87251
10.0527
10.2271
10.3959
10.5591
10.7168
10.8695
11.0175
11.1627
11.3047
11.4567
11.5913
-7.09829
-7.09879
-7.09964
-7.10069
-7.10172
-7.10263
-7.1034
-7.10404
-7.10458
-7.10508
-7.10556
-7.10609
-7.1067
-7.10744
-7.10834
-7.10943
-7.11075
-7.11233
-7.11423
-7.1165
-7.11921
-7.12243
-7.12624
-7.1307
-7.13589
-7.14189
-7.14875
-7.15654
-7.16531
-7.17511
-7.18597
-7.19791
-7.21096
-7.22512
-7.24036
-7.25668
-7.27406
-7.29247
-7.31187
-7.33222
-7.35349
-7.37561
-7.39855
-7.42224
-7.44663
-7.47167
-7.49729
-7.52345
-7.55007
-7.5771
-7.60448
-7.63215
-7.66006
-7.68813
-7.71631
-7.74453
-7.77271
-7.80079
-7.82867
-7.85628
-7.88352
-7.9103
-7.93651
-7.96204
-7.98678
-8.0106
-8.03337
-8.05496
-8.07521
-8.09398
-8.11111
-8.12643
-8.13977
-8.15096
-8.15982
-8.16615
-8.16976
-8.17046
-8.16805
-8.16233
-8.15308
-8.14011
-8.12321
-8.10216
-8.07677
-8.04682
-8.01212
-7.97246
-7.92765
-7.87749
-7.82181
-7.76042
-7.69315
-7.61984
-7.54032
-7.45446
-7.3621
-7.26314
-7.15744
-7.0449
-6.92538
-6.79881
-6.66519
-6.52453
-6.37676
-6.22187
-6.05983
-5.89067
-5.7144
-5.53107
-5.34073
-5.14346
-4.93936
-4.72852
-4.51109
-4.28719
-4.05699
-3.82066
-3.57839
-3.33039
-3.07687
-2.81807
-2.55422
-2.28559
-2.01245
-1.73508
-1.45377
-1.16882
-0.880546
-0.589273
-0.29533
0.000970618
0.299314
0.599345
0.900694
1.20303
1.50602
1.80931
2.11256
2.41543
2.71758
3.01867
3.31838
3.6164
3.9124
4.20609
4.49718
4.78539
5.07044
5.35208
5.63008
5.90419
6.1742
6.43992
6.70115
6.95774
7.20951
7.45631
7.69804
7.93457
8.16582
8.3917
8.61212
8.82702
9.03636
9.24018
9.43847
9.63112
9.81803
9.99916
10.1746
10.3443
10.5085
10.6673
10.8211
10.9702
11.1165
11.2587
11.4096
11.5313
-7.093
-7.09407
-7.09578
-7.09746
-7.09885
-7.09994
-7.10078
-7.10144
-7.10196
-7.1024
-7.10283
-7.1033
-7.10386
-7.10456
-7.10545
-7.10656
-7.10795
-7.10966
-7.11175
-7.11427
-7.1173
-7.1209
-7.12513
-7.13008
-7.13579
-7.14232
-7.14974
-7.15807
-7.16736
-7.17764
-7.18892
-7.20123
-7.21457
-7.22892
-7.2443
-7.26066
-7.278
-7.29629
-7.31549
-7.33558
-7.3565
-7.37824
-7.40073
-7.42394
-7.44781
-7.47232
-7.4974
-7.523
-7.54908
-7.57558
-7.60245
-7.62962
-7.65705
-7.68468
-7.71244
-7.74026
-7.76808
-7.79582
-7.82339
-7.85073
-7.87773
-7.90429
-7.93032
-7.95571
-7.98033
-8.00406
-8.02678
-8.04835
-8.06861
-8.08743
-8.10463
-8.12007
-8.13356
-8.14492
-8.15399
-8.16056
-8.16445
-8.16546
-8.16339
-8.15804
-8.1492
-8.13667
-8.12024
-8.0997
-8.07484
-8.04546
-8.01136
-7.97233
-7.92818
-7.87871
-7.82374
-7.7631
-7.6966
-7.62408
-7.54539
-7.46037
-7.36888
-7.2708
-7.166
-7.05439
-6.93584
-6.81031
-6.67776
-6.53815
-6.39144
-6.23762
-6.07667
-5.90859
-5.73342
-5.55119
-5.36196
-5.1658
-4.96281
-4.75308
-4.53675
-4.31396
-4.08485
-3.8496
-3.60841
-3.36146
-3.10898
-2.8512
-2.58836
-2.32071
-2.04852
-1.77208
-1.49166
-1.20758
-0.920147
-0.62968
-0.336504
-0.0409259
0.256729
0.556094
0.856815
1.15858
1.46106
1.76388
2.06669
2.36917
2.67098
2.97178
3.27125
3.56907
3.86492
4.15851
4.44954
4.73774
5.02282
5.30454
5.58265
5.85692
6.12713
6.39308
6.65458
6.91146
7.16355
7.41072
7.65285
7.88982
8.12152
8.34786
8.56876
8.78416
8.99398
9.19824
9.39695
9.59002
9.77737
9.95899
10.1349
10.3052
10.4699
10.6292
10.7835
10.9331
11.0794
11.2203
11.3684
11.478
-7.08622
-7.08794
-7.09068
-7.09318
-7.09507
-7.09649
-7.09757
-7.0984
-7.09906
-7.09962
-7.10017
-7.10075
-7.10145
-7.10232
-7.1034
-7.10475
-7.10643
-7.10848
-7.11096
-7.11393
-7.11746
-7.1216
-7.12642
-7.13197
-7.13829
-7.14545
-7.15346
-7.16238
-7.17221
-7.18297
-7.19469
-7.20736
-7.22099
-7.23556
-7.25106
-7.26748
-7.28479
-7.30298
-7.32203
-7.34189
-7.36254
-7.38395
-7.40609
-7.42891
-7.45238
-7.47647
-7.50112
-7.52629
-7.55194
-7.57803
-7.60449
-7.63128
-7.65834
-7.68562
-7.71305
-7.74058
-7.76813
-7.79562
-7.82299
-7.85014
-7.87698
-7.90341
-7.92934
-7.95466
-7.97923
-8.00295
-8.02569
-8.04729
-8.06762
-8.08652
-8.10385
-8.11942
-8.13307
-8.14463
-8.1539
-8.16071
-8.16485
-8.16614
-8.16437
-8.15934
-8.15084
-8.13866
-8.12261
-8.10246
-8.07802
-8.04908
-8.01542
-7.97686
-7.93319
-7.88423
-7.82978
-7.76967
-7.70372
-7.63176
-7.55365
-7.46922
-7.37834
-7.28088
-7.17672
-7.06577
-6.94791
-6.82309
-6.69126
-6.55236
-6.40638
-6.25329
-6.09306
-5.92573
-5.7513
-5.56981
-5.38133
-5.18592
-4.98368
-4.7747
-4.55912
-4.33707
-4.1087
-3.87419
-3.63373
-3.38751
-3.13574
-2.87866
-2.61651
-2.34953
-2.078
-1.80219
-1.5224
-1.23892
-0.952072
-0.662167
-0.369525
-0.0744491
0.222716
0.521604
0.821885
1.12325
1.42537
1.72785
2.03037
2.33258
2.63415
2.93474
3.23404
3.53172
3.82748
4.121
4.412
4.70019
4.98531
5.26709
5.5453
5.81969
6.09005
6.35618
6.61789
6.875
7.12736
7.37482
7.61725
7.85453
8.08656
8.31324
8.5345
8.75024
8.9604
9.16497
9.36393
9.55726
9.74489
9.92681
10.103
10.2736
10.4386
10.5982
10.7527
10.9022
11.0479
11.187
11.3323
11.431
-7.07895
-7.08131
-7.08511
-7.08847
-7.09095
-7.09281
-7.09424
-7.09537
-7.09629
-7.09711
-7.0979
-7.09876
-7.09975
-7.10093
-7.10236
-7.10411
-7.10622
-7.10875
-7.11176
-7.11529
-7.11941
-7.12417
-7.12961
-7.13578
-7.14272
-7.15048
-7.15906
-7.16851
-7.17882
-7.19002
-7.20212
-7.2151
-7.22897
-7.24372
-7.25934
-7.27581
-7.29312
-7.31125
-7.33018
-7.34988
-7.37034
-7.39152
-7.4134
-7.43594
-7.45911
-7.48289
-7.50722
-7.53208
-7.55742
-7.58319
-7.60936
-7.63587
-7.66268
-7.68972
-7.71694
-7.74427
-7.77165
-7.799
-7.82624
-7.8533
-7.88007
-7.90646
-7.93238
-7.9577
-7.98231
-8.00608
-8.02888
-8.05058
-8.07103
-8.09007
-8.10754
-8.12328
-8.13712
-8.14887
-8.15836
-8.16539
-8.16977
-8.1713
-8.16979
-8.16503
-8.1568
-8.14492
-8.12916
-8.10931
-8.08518
-8.05655
-8.02322
-7.98499
-7.94166
-7.89304
-7.83894
-7.77918
-7.71359
-7.64201
-7.56426
-7.48022
-7.38973
-7.29267
-7.18892
-7.07839
-6.96097
-6.8366
-6.70523
-6.56679
-6.42127
-6.26863
-6.10887
-5.942
-5.76804
-5.58702
-5.39902
-5.20409
-5.00232
-4.79383
-4.57874
-4.35717
-4.12929
-3.89527
-3.65529
-3.40954
-3.15826
-2.90165
-2.63996
-2.37344
-2.10237
-1.82701
-1.54765
-1.26459
-0.978154
-0.688649
-0.396384
-0.101676
0.19512
0.493655
0.793613
1.09469
1.39652
1.69875
2.00104
2.30303
2.60442
2.90485
3.20401
3.50157
3.79723
4.09069
4.38164
4.66982
4.95494
5.23675
5.515
5.78947
6.05992
6.32617
6.58802
6.8453
7.09784